V -t * -v 1.0a5 -a 0
A -t * -n 1 -p 0 -o 0x7fffffff -c 30 -a 1
A -t * -h 1 -m 1073741823 -s 0
n -t * -a 4 -s 4 -S UP -v circle -c black -i black
n -t * -a 0 -s 0 -S UP -v circle -c black -i black
n -t * -a 5 -s 5 -S UP -v circle -c black -i black
n -t * -a 1 -s 1 -S UP -v circle -c black -i black
n -t * -a 2 -s 2 -S UP -v circle -c black -i black
n -t * -a 3 -s 3 -S UP -v circle -c black -i black
l -t * -s 0 -d 1 -S UP -r 1500000 -D 0.01 -c black -o right
l -t * -s 0 -d 2 -S UP -r 10000000 -D 0.0050000000000000001 -c black -o left-up
l -t * -s 0 -d 3 -S UP -r 10000000 -D 0.0050000000000000001 -c black -o left
l -t * -s 0 -d 4 -S UP -r 10000000 -D 0.0050000000000000001 -c black -o left-down
l -t * -s 0 -d 5 -S UP -r 10000000 -D 0.0050000000000000001 -c black -o down
q -t * -s 1 -d 0 -a 0.5
q -t * -s 0 -d 1 -a 0.5
+ -t 1.01553 -s 4 -d 0 -p udp -e 750 -c 0 -i 0 -a 0 -x {4.0 1.2 0 ------- null}
- -t 1.01553 -s 4 -d 0 -p udp -e 750 -c 0 -i 0 -a 0 -x {4.0 1.2 0 ------- null}
h -t 1.01553 -s 4 -d 0 -p udp -e 750 -c 0 -i 0 -a 0 -x {4.0 1.2 -1 ------- null}
r -t 1.02113 -s 4 -d 0 -p udp -e 750 -c 0 -i 0 -a 0 -x {4.0 1.2 0 ------- null}
+ -t 1.02113 -s 0 -d 1 -p udp -e 750 -c 0 -i 0 -a 0 -x {4.0 1.2 0 ------- null}
- -t 1.02113 -s 0 -d 1 -p udp -e 750 -c 0 -i 0 -a 0 -x {4.0 1.2 0 ------- null}
h -t 1.02113 -s 0 -d 1 -p udp -e 750 -c 0 -i 0 -a 0 -x {4.0 1.2 -1 ------- null}
r -t 1.03513 -s 0 -d 1 -p udp -e 750 -c 0 -i 0 -a 0 -x {4.0 1.2 0 ------- null}
+ -t 1.03584 -s 5 -d 0 -p udp -e 1000 -c 0 -i 1 -a 0 -x {5.0 1.3 0 ------- null}
- -t 1.03584 -s 5 -d 0 -p udp -e 1000 -c 0 -i 1 -a 0 -x {5.0 1.3 0 ------- null}
h -t 1.03584 -s 5 -d 0 -p udp -e 1000 -c 0 -i 1 -a 0 -x {5.0 1.3 -1 ------- null}
r -t 1.04164 -s 5 -d 0 -p udp -e 1000 -c 0 -i 1 -a 0 -x {5.0 1.3 0 ------- null}
+ -t 1.04164 -s 0 -d 1 -p udp -e 1000 -c 0 -i 1 -a 0 -x {5.0 1.3 0 ------- null}
- -t 1.04164 -s 0 -d 1 -p udp -e 1000 -c 0 -i 1 -a 0 -x {5.0 1.3 0 ------- null}
h -t 1.04164 -s 0 -d 1 -p udp -e 1000 -c 0 -i 1 -a 0 -x {5.0 1.3 -1 ------- null}
+ -t 1.042994 -s 5 -d 0 -p udp -e 1000 -c 0 -i 2 -a 0 -x {5.0 1.3 1 ------- null}
- -t 1.042994 -s 5 -d 0 -p udp -e 1000 -c 0 -i 2 -a 0 -x {5.0 1.3 1 ------- null}
h -t 1.042994 -s 5 -d 0 -p udp -e 1000 -c 0 -i 2 -a 0 -x {5.0 1.3 -1 ------- null}
r -t 1.048794 -s 5 -d 0 -p udp -e 1000 -c 0 -i 2 -a 0 -x {5.0 1.3 1 ------- null}
+ -t 1.048794 -s 0 -d 1 -p udp -e 1000 -c 0 -i 2 -a 0 -x {5.0 1.3 1 ------- null}
- -t 1.048794 -s 0 -d 1 -p udp -e 1000 -c 0 -i 2 -a 0 -x {5.0 1.3 1 ------- null}
h -t 1.048794 -s 0 -d 1 -p udp -e 1000 -c 0 -i 2 -a 0 -x {5.0 1.3 -1 ------- null}
r -t 1.05697333333333 -s 0 -d 1 -p udp -e 1000 -c 0 -i 1 -a 0 -x {5.0 1.3 0 ------- null}
r -t 1.06412733333333 -s 0 -d 1 -p udp -e 1000 -c 0 -i 2 -a 0 -x {5.0 1.3 1 ------- null}
+ -t 1.243348 -s 4 -d 0 -p udp -e 1000 -c 0 -i 3 -a 0 -x {4.0 1.2 1 ------- null}
- -t 1.243348 -s 4 -d 0 -p udp -e 1000 -c 0 -i 3 -a 0 -x {4.0 1.2 1 ------- null}
h -t 1.243348 -s 4 -d 0 -p udp -e 1000 -c 0 -i 3 -a 0 -x {4.0 1.2 -1 ------- null}
r -t 1.249148 -s 4 -d 0 -p udp -e 1000 -c 0 -i 3 -a 0 -x {4.0 1.2 1 ------- null}
+ -t 1.249148 -s 0 -d 1 -p udp -e 1000 -c 0 -i 3 -a 0 -x {4.0 1.2 1 ------- null}
- -t 1.249148 -s 0 -d 1 -p udp -e 1000 -c 0 -i 3 -a 0 -x {4.0 1.2 1 ------- null}
h -t 1.249148 -s 0 -d 1 -p udp -e 1000 -c 0 -i 3 -a 0 -x {4.0 1.2 -1 ------- null}
r -t 1.26448133333333 -s 0 -d 1 -p udp -e 1000 -c 0 -i 3 -a 0 -x {4.0 1.2 1 ------- null}
+ -t 1.31040077367387 -s 2 -d 0 -p exp -e 210 -c 0 -i 4 -a 0 -x {2.0 1.0 0 ------- null}
- -t 1.31040077367387 -s 2 -d 0 -p exp -e 210 -c 0 -i 4 -a 0 -x {2.0 1.0 0 ------- null}
h -t 1.31040077367387 -s 2 -d 0 -p exp -e 210 -c 0 -i 4 -a 0 -x {2.0 1.0 -1 ------- null}
r -t 1.31556877367387 -s 2 -d 0 -p exp -e 210 -c 0 -i 4 -a 0 -x {2.0 1.0 0 ------- null}
+ -t 1.31556877367387 -s 0 -d 1 -p exp -e 210 -c 0 -i 4 -a 0 -x {2.0 1.0 0 ------- null}
- -t 1.31556877367387 -s 0 -d 1 -p exp -e 210 -c 0 -i 4 -a 0 -x {2.0 1.0 0 ------- null}
h -t 1.31556877367387 -s 0 -d 1 -p exp -e 210 -c 0 -i 4 -a 0 -x {2.0 1.0 -1 ------- null}
r -t 1.32668877367387 -s 0 -d 1 -p exp -e 210 -c 0 -i 4 -a 0 -x {2.0 1.0 0 ------- null}
+ -t 1.32720077367387 -s 2 -d 0 -p exp -e 210 -c 0 -i 5 -a 0 -x {2.0 1.0 1 ------- null}
- -t 1.32720077367387 -s 2 -d 0 -p exp -e 210 -c 0 -i 5 -a 0 -x {2.0 1.0 1 ------- null}
h -t 1.32720077367387 -s 2 -d 0 -p exp -e 210 -c 0 -i 5 -a 0 -x {2.0 1.0 -1 ------- null}
+ -t 1.330185 -s 5 -d 0 -p udp -e 1000 -c 0 -i 6 -a 0 -x {5.0 1.3 2 ------- null}
- -t 1.330185 -s 5 -d 0 -p udp -e 1000 -c 0 -i 6 -a 0 -x {5.0 1.3 2 ------- null}
h -t 1.330185 -s 5 -d 0 -p udp -e 1000 -c 0 -i 6 -a 0 -x {5.0 1.3 -1 ------- null}
r -t 1.33236877367387 -s 2 -d 0 -p exp -e 210 -c 0 -i 5 -a 0 -x {2.0 1.0 1 ------- null}
+ -t 1.33236877367387 -s 0 -d 1 -p exp -e 210 -c 0 -i 5 -a 0 -x {2.0 1.0 1 ------- null}
- -t 1.33236877367387 -s 0 -d 1 -p exp -e 210 -c 0 -i 5 -a 0 -x {2.0 1.0 1 ------- null}
h -t 1.33236877367387 -s 0 -d 1 -p exp -e 210 -c 0 -i 5 -a 0 -x {2.0 1.0 -1 ------- null}
r -t 1.335985 -s 5 -d 0 -p udp -e 1000 -c 0 -i 6 -a 0 -x {5.0 1.3 2 ------- null}
+ -t 1.335985 -s 0 -d 1 -p udp -e 1000 -c 0 -i 6 -a 0 -x {5.0 1.3 2 ------- null}
- -t 1.335985 -s 0 -d 1 -p udp -e 1000 -c 0 -i 6 -a 0 -x {5.0 1.3 2 ------- null}
h -t 1.335985 -s 0 -d 1 -p udp -e 1000 -c 0 -i 6 -a 0 -x {5.0 1.3 -1 ------- null}
r -t 1.34348877367387 -s 0 -d 1 -p exp -e 210 -c 0 -i 5 -a 0 -x {2.0 1.0 1 ------- null}
+ -t 1.34400077367387 -s 2 -d 0 -p exp -e 210 -c 0 -i 7 -a 0 -x {2.0 1.0 2 ------- null}
- -t 1.34400077367387 -s 2 -d 0 -p exp -e 210 -c 0 -i 7 -a 0 -x {2.0 1.0 2 ------- null}
h -t 1.34400077367387 -s 2 -d 0 -p exp -e 210 -c 0 -i 7 -a 0 -x {2.0 1.0 -1 ------- null}
r -t 1.34916877367387 -s 2 -d 0 -p exp -e 210 -c 0 -i 7 -a 0 -x {2.0 1.0 2 ------- null}
+ -t 1.34916877367387 -s 0 -d 1 -p exp -e 210 -c 0 -i 7 -a 0 -x {2.0 1.0 2 ------- null}
- -t 1.34916877367387 -s 0 -d 1 -p exp -e 210 -c 0 -i 7 -a 0 -x {2.0 1.0 2 ------- null}
h -t 1.34916877367387 -s 0 -d 1 -p exp -e 210 -c 0 -i 7 -a 0 -x {2.0 1.0 -1 ------- null}
r -t 1.35131833333333 -s 0 -d 1 -p udp -e 1000 -c 0 -i 6 -a 0 -x {5.0 1.3 2 ------- null}
+ -t 1.35358 -s 5 -d 0 -p udp -e 1000 -c 0 -i 8 -a 0 -x {5.0 1.3 3 ------- null}
- -t 1.35358 -s 5 -d 0 -p udp -e 1000 -c 0 -i 8 -a 0 -x {5.0 1.3 3 ------- null}
h -t 1.35358 -s 5 -d 0 -p udp -e 1000 -c 0 -i 8 -a 0 -x {5.0 1.3 -1 ------- null}
r -t 1.35938 -s 5 -d 0 -p udp -e 1000 -c 0 -i 8 -a 0 -x {5.0 1.3 3 ------- null}
+ -t 1.35938 -s 0 -d 1 -p udp -e 1000 -c 0 -i 8 -a 0 -x {5.0 1.3 3 ------- null}
- -t 1.35938 -s 0 -d 1 -p udp -e 1000 -c 0 -i 8 -a 0 -x {5.0 1.3 3 ------- null}
h -t 1.35938 -s 0 -d 1 -p udp -e 1000 -c 0 -i 8 -a 0 -x {5.0 1.3 -1 ------- null}
+ -t 1.359446 -s 5 -d 0 -p udp -e 250 -c 0 -i 9 -a 0 -x {5.0 1.3 4 ------- null}
- -t 1.359446 -s 5 -d 0 -p udp -e 250 -c 0 -i 9 -a 0 -x {5.0 1.3 4 ------- null}
h -t 1.359446 -s 5 -d 0 -p udp -e 250 -c 0 -i 9 -a 0 -x {5.0 1.3 -1 ------- null}
r -t 1.36028877367387 -s 0 -d 1 -p exp -e 210 -c 0 -i 7 -a 0 -x {2.0 1.0 2 ------- null}
+ -t 1.36080077367387 -s 2 -d 0 -p exp -e 210 -c 0 -i 10 -a 0 -x {2.0 1.0 3 ------- null}
- -t 1.36080077367387 -s 2 -d 0 -p exp -e 210 -c 0 -i 10 -a 0 -x {2.0 1.0 3 ------- null}
h -t 1.36080077367387 -s 2 -d 0 -p exp -e 210 -c 0 -i 10 -a 0 -x {2.0 1.0 -1 ------- null}
r -t 1.364646 -s 5 -d 0 -p udp -e 250 -c 0 -i 9 -a 0 -x {5.0 1.3 4 ------- null}
+ -t 1.364646 -s 0 -d 1 -p udp -e 250 -c 0 -i 9 -a 0 -x {5.0 1.3 4 ------- null}
- -t 1.36471333333333 -s 0 -d 1 -p udp -e 250 -c 0 -i 9 -a 0 -x {5.0 1.3 4 ------- null}
h -t 1.36471333333333 -s 0 -d 1 -p udp -e 250 -c 0 -i 9 -a 0 -x {5.0 1.3 -1 ------- null}
r -t 1.36596877367387 -s 2 -d 0 -p exp -e 210 -c 0 -i 10 -a 0 -x {2.0 1.0 3 ------- null}
+ -t 1.36596877367387 -s 0 -d 1 -p exp -e 210 -c 0 -i 10 -a 0 -x {2.0 1.0 3 ------- null}
- -t 1.36604666666667 -s 0 -d 1 -p exp -e 210 -c 0 -i 10 -a 0 -x {2.0 1.0 3 ------- null}
h -t 1.36604666666667 -s 0 -d 1 -p exp -e 210 -c 0 -i 10 -a 0 -x {2.0 1.0 -1 ------- null}
r -t 1.37471333333333 -s 0 -d 1 -p udp -e 1000 -c 0 -i 8 -a 0 -x {5.0 1.3 3 ------- null}
r -t 1.37604666666667 -s 0 -d 1 -p udp -e 250 -c 0 -i 9 -a 0 -x {5.0 1.3 4 ------- null}
r -t 1.37716666666667 -s 0 -d 1 -p exp -e 210 -c 0 -i 10 -a 0 -x {2.0 1.0 3 ------- null}
+ -t 1.37760077367387 -s 2 -d 0 -p exp -e 210 -c 0 -i 11 -a 0 -x {2.0 1.0 4 ------- null}
- -t 1.37760077367387 -s 2 -d 0 -p exp -e 210 -c 0 -i 11 -a 0 -x {2.0 1.0 4 ------- null}
h -t 1.37760077367387 -s 2 -d 0 -p exp -e 210 -c 0 -i 11 -a 0 -x {2.0 1.0 -1 ------- null}
r -t 1.38276877367387 -s 2 -d 0 -p exp -e 210 -c 0 -i 11 -a 0 -x {2.0 1.0 4 ------- null}
+ -t 1.38276877367387 -s 0 -d 1 -p exp -e 210 -c 0 -i 11 -a 0 -x {2.0 1.0 4 ------- null}
- -t 1.38276877367387 -s 0 -d 1 -p exp -e 210 -c 0 -i 11 -a 0 -x {2.0 1.0 4 ------- null}
h -t 1.38276877367387 -s 0 -d 1 -p exp -e 210 -c 0 -i 11 -a 0 -x {2.0 1.0 -1 ------- null}
r -t 1.39388877367387 -s 0 -d 1 -p exp -e 210 -c 0 -i 11 -a 0 -x {2.0 1.0 4 ------- null}
+ -t 1.39440077367387 -s 2 -d 0 -p exp -e 210 -c 0 -i 12 -a 0 -x {2.0 1.0 5 ------- null}
- -t 1.39440077367387 -s 2 -d 0 -p exp -e 210 -c 0 -i 12 -a 0 -x {2.0 1.0 5 ------- null}
h -t 1.39440077367387 -s 2 -d 0 -p exp -e 210 -c 0 -i 12 -a 0 -x {2.0 1.0 -1 ------- null}
r -t 1.39956877367387 -s 2 -d 0 -p exp -e 210 -c 0 -i 12 -a 0 -x {2.0 1.0 5 ------- null}
+ -t 1.39956877367387 -s 0 -d 1 -p exp -e 210 -c 0 -i 12 -a 0 -x {2.0 1.0 5 ------- null}
- -t 1.39956877367387 -s 0 -d 1 -p exp -e 210 -c 0 -i 12 -a 0 -x {2.0 1.0 5 ------- null}
h -t 1.39956877367387 -s 0 -d 1 -p exp -e 210 -c 0 -i 12 -a 0 -x {2.0 1.0 -1 ------- null}
r -t 1.41068877367387 -s 0 -d 1 -p exp -e 210 -c 0 -i 12 -a 0 -x {2.0 1.0 5 ------- null}
+ -t 1.41120077367387 -s 2 -d 0 -p exp -e 210 -c 0 -i 13 -a 0 -x {2.0 1.0 6 ------- null}
- -t 1.41120077367387 -s 2 -d 0 -p exp -e 210 -c 0 -i 13 -a 0 -x {2.0 1.0 6 ------- null}
h -t 1.41120077367387 -s 2 -d 0 -p exp -e 210 -c 0 -i 13 -a 0 -x {2.0 1.0 -1 ------- null}
r -t 1.41636877367387 -s 2 -d 0 -p exp -e 210 -c 0 -i 13 -a 0 -x {2.0 1.0 6 ------- null}
+ -t 1.41636877367387 -s 0 -d 1 -p exp -e 210 -c 0 -i 13 -a 0 -x {2.0 1.0 6 ------- null}
- -t 1.41636877367387 -s 0 -d 1 -p exp -e 210 -c 0 -i 13 -a 0 -x {2.0 1.0 6 ------- null}
h -t 1.41636877367387 -s 0 -d 1 -p exp -e 210 -c 0 -i 13 -a 0 -x {2.0 1.0 -1 ------- null}
r -t 1.42748877367387 -s 0 -d 1 -p exp -e 210 -c 0 -i 13 -a 0 -x {2.0 1.0 6 ------- null}
+ -t 1.42800077367387 -s 2 -d 0 -p exp -e 210 -c 0 -i 14 -a 0 -x {2.0 1.0 7 ------- null}
- -t 1.42800077367387 -s 2 -d 0 -p exp -e 210 -c 0 -i 14 -a 0 -x {2.0 1.0 7 ------- null}
h -t 1.42800077367387 -s 2 -d 0 -p exp -e 210 -c 0 -i 14 -a 0 -x {2.0 1.0 -1 ------- null}
r -t 1.43316877367387 -s 2 -d 0 -p exp -e 210 -c 0 -i 14 -a 0 -x {2.0 1.0 7 ------- null}
+ -t 1.43316877367387 -s 0 -d 1 -p exp -e 210 -c 0 -i 14 -a 0 -x {2.0 1.0 7 ------- null}
- -t 1.43316877367387 -s 0 -d 1 -p exp -e 210 -c 0 -i 14 -a 0 -x {2.0 1.0 7 ------- null}
h -t 1.43316877367387 -s 0 -d 1 -p exp -e 210 -c 0 -i 14 -a 0 -x {2.0 1.0 -1 ------- null}
r -t 1.44428877367387 -s 0 -d 1 -p exp -e 210 -c 0 -i 14 -a 0 -x {2.0 1.0 7 ------- null}
+ -t 1.44480077367387 -s 2 -d 0 -p exp -e 210 -c 0 -i 15 -a 0 -x {2.0 1.0 8 ------- null}
- -t 1.44480077367387 -s 2 -d 0 -p exp -e 210 -c 0 -i 15 -a 0 -x {2.0 1.0 8 ------- null}
h -t 1.44480077367387 -s 2 -d 0 -p exp -e 210 -c 0 -i 15 -a 0 -x {2.0 1.0 -1 ------- null}
r -t 1.44996877367387 -s 2 -d 0 -p exp -e 210 -c 0 -i 15 -a 0 -x {2.0 1.0 8 ------- null}
+ -t 1.44996877367387 -s 0 -d 1 -p exp -e 210 -c 0 -i 15 -a 0 -x {2.0 1.0 8 ------- null}
- -t 1.44996877367387 -s 0 -d 1 -p exp -e 210 -c 0 -i 15 -a 0 -x {2.0 1.0 8 ------- null}
h -t 1.44996877367387 -s 0 -d 1 -p exp -e 210 -c 0 -i 15 -a 0 -x {2.0 1.0 -1 ------- null}
r -t 1.46108877367387 -s 0 -d 1 -p exp -e 210 -c 0 -i 15 -a 0 -x {2.0 1.0 8 ------- null}
+ -t 1.46160077367387 -s 2 -d 0 -p exp -e 210 -c 0 -i 16 -a 0 -x {2.0 1.0 9 ------- null}
- -t 1.46160077367387 -s 2 -d 0 -p exp -e 210 -c 0 -i 16 -a 0 -x {2.0 1.0 9 ------- null}
h -t 1.46160077367387 -s 2 -d 0 -p exp -e 210 -c 0 -i 16 -a 0 -x {2.0 1.0 -1 ------- null}
r -t 1.46676877367387 -s 2 -d 0 -p exp -e 210 -c 0 -i 16 -a 0 -x {2.0 1.0 9 ------- null}
+ -t 1.46676877367387 -s 0 -d 1 -p exp -e 210 -c 0 -i 16 -a 0 -x {2.0 1.0 9 ------- null}
- -t 1.46676877367387 -s 0 -d 1 -p exp -e 210 -c 0 -i 16 -a 0 -x {2.0 1.0 9 ------- null}
h -t 1.46676877367387 -s 0 -d 1 -p exp -e 210 -c 0 -i 16 -a 0 -x {2.0 1.0 -1 ------- null}
r -t 1.47788877367387 -s 0 -d 1 -p exp -e 210 -c 0 -i 16 -a 0 -x {2.0 1.0 9 ------- null}
+ -t 1.47840077367387 -s 2 -d 0 -p exp -e 210 -c 0 -i 17 -a 0 -x {2.0 1.0 10 ------- null}
- -t 1.47840077367387 -s 2 -d 0 -p exp -e 210 -c 0 -i 17 -a 0 -x {2.0 1.0 10 ------- null}
h -t 1.47840077367387 -s 2 -d 0 -p exp -e 210 -c 0 -i 17 -a 0 -x {2.0 1.0 -1 ------- null}
r -t 1.48356877367387 -s 2 -d 0 -p exp -e 210 -c 0 -i 17 -a 0 -x {2.0 1.0 10 ------- null}
+ -t 1.48356877367387 -s 0 -d 1 -p exp -e 210 -c 0 -i 17 -a 0 -x {2.0 1.0 10 ------- null}
- -t 1.48356877367387 -s 0 -d 1 -p exp -e 210 -c 0 -i 17 -a 0 -x {2.0 1.0 10 ------- null}
h -t 1.48356877367387 -s 0 -d 1 -p exp -e 210 -c 0 -i 17 -a 0 -x {2.0 1.0 -1 ------- null}
+ -t 1.493162 -s 4 -d 0 -p udp -e 1000 -c 0 -i 18 -a 0 -x {4.0 1.2 2 ------- null}
- -t 1.493162 -s 4 -d 0 -p udp -e 1000 -c 0 -i 18 -a 0 -x {4.0 1.2 2 ------- null}
h -t 1.493162 -s 4 -d 0 -p udp -e 1000 -c 0 -i 18 -a 0 -x {4.0 1.2 -1 ------- null}
r -t 1.49468877367387 -s 0 -d 1 -p exp -e 210 -c 0 -i 17 -a 0 -x {2.0 1.0 10 ------- null}
+ -t 1.49520077367387 -s 2 -d 0 -p exp -e 210 -c 0 -i 19 -a 0 -x {2.0 1.0 11 ------- null}
- -t 1.49520077367387 -s 2 -d 0 -p exp -e 210 -c 0 -i 19 -a 0 -x {2.0 1.0 11 ------- null}
h -t 1.49520077367387 -s 2 -d 0 -p exp -e 210 -c 0 -i 19 -a 0 -x {2.0 1.0 -1 ------- null}
r -t 1.498962 -s 4 -d 0 -p udp -e 1000 -c 0 -i 18 -a 0 -x {4.0 1.2 2 ------- null}
+ -t 1.498962 -s 0 -d 1 -p udp -e 1000 -c 0 -i 18 -a 0 -x {4.0 1.2 2 ------- null}
- -t 1.498962 -s 0 -d 1 -p udp -e 1000 -c 0 -i 18 -a 0 -x {4.0 1.2 2 ------- null}
h -t 1.498962 -s 0 -d 1 -p udp -e 1000 -c 0 -i 18 -a 0 -x {4.0 1.2 -1 ------- null}
r -t 1.50036877367387 -s 2 -d 0 -p exp -e 210 -c 0 -i 19 -a 0 -x {2.0 1.0 11 ------- null}
+ -t 1.50036877367387 -s 0 -d 1 -p exp -e 210 -c 0 -i 19 -a 0 -x {2.0 1.0 11 ------- null}
+ -t 1.504097 -s 5 -d 0 -p udp -e 1000 -c 0 -i 20 -a 0 -x {5.0 1.3 5 ------- null}
- -t 1.504097 -s 5 -d 0 -p udp -e 1000 -c 0 -i 20 -a 0 -x {5.0 1.3 5 ------- null}
h -t 1.504097 -s 5 -d 0 -p udp -e 1000 -c 0 -i 20 -a 0 -x {5.0 1.3 -1 ------- null}
- -t 1.50429533333333 -s 0 -d 1 -p exp -e 210 -c 0 -i 19 -a 0 -x {2.0 1.0 11 ------- null}
h -t 1.50429533333333 -s 0 -d 1 -p exp -e 210 -c 0 -i 19 -a 0 -x {2.0 1.0 -1 ------- null}
+ -t 1.508227 -s 4 -d 0 -p udp -e 750 -c 0 -i 21 -a 0 -x {4.0 1.2 3 ------- null}
- -t 1.508227 -s 4 -d 0 -p udp -e 750 -c 0 -i 21 -a 0 -x {4.0 1.2 3 ------- null}
h -t 1.508227 -s 4 -d 0 -p udp -e 750 -c 0 -i 21 -a 0 -x {4.0 1.2 -1 ------- null}
r -t 1.509897 -s 5 -d 0 -p udp -e 1000 -c 0 -i 20 -a 0 -x {5.0 1.3 5 ------- null}
+ -t 1.509897 -s 0 -d 1 -p udp -e 1000 -c 0 -i 20 -a 0 -x {5.0 1.3 5 ------- null}
- -t 1.509897 -s 0 -d 1 -p udp -e 1000 -c 0 -i 20 -a 0 -x {5.0 1.3 5 ------- null}
h -t 1.509897 -s 0 -d 1 -p udp -e 1000 -c 0 -i 20 -a 0 -x {5.0 1.3 -1 ------- null}
+ -t 1.51200077367387 -s 2 -d 0 -p exp -e 210 -c 0 -i 22 -a 0 -x {2.0 1.0 12 ------- null}
- -t 1.51200077367387 -s 2 -d 0 -p exp -e 210 -c 0 -i 22 -a 0 -x {2.0 1.0 12 ------- null}
h -t 1.51200077367387 -s 2 -d 0 -p exp -e 210 -c 0 -i 22 -a 0 -x {2.0 1.0 -1 ------- null}
r -t 1.513827 -s 4 -d 0 -p udp -e 750 -c 0 -i 21 -a 0 -x {4.0 1.2 3 ------- null}
+ -t 1.513827 -s 0 -d 1 -p udp -e 750 -c 0 -i 21 -a 0 -x {4.0 1.2 3 ------- null}
r -t 1.51429533333333 -s 0 -d 1 -p udp -e 1000 -c 0 -i 18 -a 0 -x {4.0 1.2 2 ------- null}
- -t 1.51523033333333 -s 0 -d 1 -p udp -e 750 -c 0 -i 21 -a 0 -x {4.0 1.2 3 ------- null}
h -t 1.51523033333333 -s 0 -d 1 -p udp -e 750 -c 0 -i 21 -a 0 -x {4.0 1.2 -1 ------- null}
r -t 1.51541533333333 -s 0 -d 1 -p exp -e 210 -c 0 -i 19 -a 0 -x {2.0 1.0 11 ------- null}
r -t 1.51716877367387 -s 2 -d 0 -p exp -e 210 -c 0 -i 22 -a 0 -x {2.0 1.0 12 ------- null}
+ -t 1.51716877367387 -s 0 -d 1 -p exp -e 210 -c 0 -i 22 -a 0 -x {2.0 1.0 12 ------- null}
- -t 1.51923033333333 -s 0 -d 1 -p exp -e 210 -c 0 -i 22 -a 0 -x {2.0 1.0 12 ------- null}
h -t 1.51923033333333 -s 0 -d 1 -p exp -e 210 -c 0 -i 22 -a 0 -x {2.0 1.0 -1 ------- null}
r -t 1.52523033333333 -s 0 -d 1 -p udp -e 1000 -c 0 -i 20 -a 0 -x {5.0 1.3 5 ------- null}
+ -t 1.52880077367387 -s 2 -d 0 -p exp -e 210 -c 0 -i 23 -a 0 -x {2.0 1.0 13 ------- null}
- -t 1.52880077367387 -s 2 -d 0 -p exp -e 210 -c 0 -i 23 -a 0 -x {2.0 1.0 13 ------- null}
h -t 1.52880077367387 -s 2 -d 0 -p exp -e 210 -c 0 -i 23 -a 0 -x {2.0 1.0 -1 ------- null}
r -t 1.52923033333333 -s 0 -d 1 -p udp -e 750 -c 0 -i 21 -a 0 -x {4.0 1.2 3 ------- null}
r -t 1.53035033333333 -s 0 -d 1 -p exp -e 210 -c 0 -i 22 -a 0 -x {2.0 1.0 12 ------- null}
r -t 1.53396877367387 -s 2 -d 0 -p exp -e 210 -c 0 -i 23 -a 0 -x {2.0 1.0 13 ------- null}
+ -t 1.53396877367387 -s 0 -d 1 -p exp -e 210 -c 0 -i 23 -a 0 -x {2.0 1.0 13 ------- null}
- -t 1.53396877367387 -s 0 -d 1 -p exp -e 210 -c 0 -i 23 -a 0 -x {2.0 1.0 13 ------- null}
h -t 1.53396877367387 -s 0 -d 1 -p exp -e 210 -c 0 -i 23 -a 0 -x {2.0 1.0 -1 ------- null}
+ -t 1.534838 -s 5 -d 0 -p udp -e 1000 -c 0 -i 24 -a 0 -x {5.0 1.3 6 ------- null}
- -t 1.534838 -s 5 -d 0 -p udp -e 1000 -c 0 -i 24 -a 0 -x {5.0 1.3 6 ------- null}
h -t 1.534838 -s 5 -d 0 -p udp -e 1000 -c 0 -i 24 -a 0 -x {5.0 1.3 -1 ------- null}
r -t 1.540638 -s 5 -d 0 -p udp -e 1000 -c 0 -i 24 -a 0 -x {5.0 1.3 6 ------- null}
+ -t 1.540638 -s 0 -d 1 -p udp -e 1000 -c 0 -i 24 -a 0 -x {5.0 1.3 6 ------- null}
- -t 1.540638 -s 0 -d 1 -p udp -e 1000 -c 0 -i 24 -a 0 -x {5.0 1.3 6 ------- null}
h -t 1.540638 -s 0 -d 1 -p udp -e 1000 -c 0 -i 24 -a 0 -x {5.0 1.3 -1 ------- null}
+ -t 1.543171 -s 5 -d 0 -p udp -e 1000 -c 0 -i 25 -a 0 -x {5.0 1.3 7 ------- null}
- -t 1.543171 -s 5 -d 0 -p udp -e 1000 -c 0 -i 25 -a 0 -x {5.0 1.3 7 ------- null}
h -t 1.543171 -s 5 -d 0 -p udp -e 1000 -c 0 -i 25 -a 0 -x {5.0 1.3 -1 ------- null}
r -t 1.54508877367387 -s 0 -d 1 -p exp -e 210 -c 0 -i 23 -a 0 -x {2.0 1.0 13 ------- null}
+ -t 1.54560077367387 -s 2 -d 0 -p exp -e 210 -c 0 -i 26 -a 0 -x {2.0 1.0 14 ------- null}
- -t 1.54560077367387 -s 2 -d 0 -p exp -e 210 -c 0 -i 26 -a 0 -x {2.0 1.0 14 ------- null}
h -t 1.54560077367387 -s 2 -d 0 -p exp -e 210 -c 0 -i 26 -a 0 -x {2.0 1.0 -1 ------- null}
r -t 1.548971 -s 5 -d 0 -p udp -e 1000 -c 0 -i 25 -a 0 -x {5.0 1.3 7 ------- null}
+ -t 1.548971 -s 0 -d 1 -p udp -e 1000 -c 0 -i 25 -a 0 -x {5.0 1.3 7 ------- null}
- -t 1.548971 -s 0 -d 1 -p udp -e 1000 -c 0 -i 25 -a 0 -x {5.0 1.3 7 ------- null}
h -t 1.548971 -s 0 -d 1 -p udp -e 1000 -c 0 -i 25 -a 0 -x {5.0 1.3 -1 ------- null}
r -t 1.55076877367387 -s 2 -d 0 -p exp -e 210 -c 0 -i 26 -a 0 -x {2.0 1.0 14 ------- null}
+ -t 1.55076877367387 -s 0 -d 1 -p exp -e 210 -c 0 -i 26 -a 0 -x {2.0 1.0 14 ------- null}
- -t 1.55430433333333 -s 0 -d 1 -p exp -e 210 -c 0 -i 26 -a 0 -x {2.0 1.0 14 ------- null}
h -t 1.55430433333333 -s 0 -d 1 -p exp -e 210 -c 0 -i 26 -a 0 -x {2.0 1.0 -1 ------- null}
r -t 1.55597133333333 -s 0 -d 1 -p udp -e 1000 -c 0 -i 24 -a 0 -x {5.0 1.3 6 ------- null}
+ -t 1.56240077367387 -s 2 -d 0 -p exp -e 210 -c 0 -i 27 -a 0 -x {2.0 1.0 15 ------- null}
- -t 1.56240077367387 -s 2 -d 0 -p exp -e 210 -c 0 -i 27 -a 0 -x {2.0 1.0 15 ------- null}
h -t 1.56240077367387 -s 2 -d 0 -p exp -e 210 -c 0 -i 27 -a 0 -x {2.0 1.0 -1 ------- null}
r -t 1.56430433333333 -s 0 -d 1 -p udp -e 1000 -c 0 -i 25 -a 0 -x {5.0 1.3 7 ------- null}
r -t 1.56542433333333 -s 0 -d 1 -p exp -e 210 -c 0 -i 26 -a 0 -x {2.0 1.0 14 ------- null}
r -t 1.56756877367387 -s 2 -d 0 -p exp -e 210 -c 0 -i 27 -a 0 -x {2.0 1.0 15 ------- null}
+ -t 1.56756877367387 -s 0 -d 1 -p exp -e 210 -c 0 -i 27 -a 0 -x {2.0 1.0 15 ------- null}
- -t 1.56756877367387 -s 0 -d 1 -p exp -e 210 -c 0 -i 27 -a 0 -x {2.0 1.0 15 ------- null}
h -t 1.56756877367387 -s 0 -d 1 -p exp -e 210 -c 0 -i 27 -a 0 -x {2.0 1.0 -1 ------- null}
r -t 1.57868877367387 -s 0 -d 1 -p exp -e 210 -c 0 -i 27 -a 0 -x {2.0 1.0 15 ------- null}
+ -t 1.57920077367387 -s 2 -d 0 -p exp -e 210 -c 0 -i 28 -a 0 -x {2.0 1.0 16 ------- null}
- -t 1.57920077367387 -s 2 -d 0 -p exp -e 210 -c 0 -i 28 -a 0 -x {2.0 1.0 16 ------- null}
h -t 1.57920077367387 -s 2 -d 0 -p exp -e 210 -c 0 -i 28 -a 0 -x {2.0 1.0 -1 ------- null}
r -t 1.58436877367387 -s 2 -d 0 -p exp -e 210 -c 0 -i 28 -a 0 -x {2.0 1.0 16 ------- null}
+ -t 1.58436877367387 -s 0 -d 1 -p exp -e 210 -c 0 -i 28 -a 0 -x {2.0 1.0 16 ------- null}
- -t 1.58436877367387 -s 0 -d 1 -p exp -e 210 -c 0 -i 28 -a 0 -x {2.0 1.0 16 ------- null}
h -t 1.58436877367387 -s 0 -d 1 -p exp -e 210 -c 0 -i 28 -a 0 -x {2.0 1.0 -1 ------- null}
r -t 1.59548877367387 -s 0 -d 1 -p exp -e 210 -c 0 -i 28 -a 0 -x {2.0 1.0 16 ------- null}
+ -t 1.59600077367387 -s 2 -d 0 -p exp -e 210 -c 0 -i 29 -a 0 -x {2.0 1.0 17 ------- null}
- -t 1.59600077367387 -s 2 -d 0 -p exp -e 210 -c 0 -i 29 -a 0 -x {2.0 1.0 17 ------- null}
h -t 1.59600077367387 -s 2 -d 0 -p exp -e 210 -c 0 -i 29 -a 0 -x {2.0 1.0 -1 ------- null}
r -t 1.60116877367387 -s 2 -d 0 -p exp -e 210 -c 0 -i 29 -a 0 -x {2.0 1.0 17 ------- null}
+ -t 1.60116877367387 -s 0 -d 1 -p exp -e 210 -c 0 -i 29 -a 0 -x {2.0 1.0 17 ------- null}
- -t 1.60116877367387 -s 0 -d 1 -p exp -e 210 -c 0 -i 29 -a 0 -x {2.0 1.0 17 ------- null}
h -t 1.60116877367387 -s 0 -d 1 -p exp -e 210 -c 0 -i 29 -a 0 -x {2.0 1.0 -1 ------- null}
r -t 1.61228877367387 -s 0 -d 1 -p exp -e 210 -c 0 -i 29 -a 0 -x {2.0 1.0 17 ------- null}
+ -t 1.61280077367387 -s 2 -d 0 -p exp -e 210 -c 0 -i 30 -a 0 -x {2.0 1.0 18 ------- null}
- -t 1.61280077367387 -s 2 -d 0 -p exp -e 210 -c 0 -i 30 -a 0 -x {2.0 1.0 18 ------- null}
h -t 1.61280077367387 -s 2 -d 0 -p exp -e 210 -c 0 -i 30 -a 0 -x {2.0 1.0 -1 ------- null}
r -t 1.61796877367387 -s 2 -d 0 -p exp -e 210 -c 0 -i 30 -a 0 -x {2.0 1.0 18 ------- null}
+ -t 1.61796877367387 -s 0 -d 1 -p exp -e 210 -c 0 -i 30 -a 0 -x {2.0 1.0 18 ------- null}
- -t 1.61796877367387 -s 0 -d 1 -p exp -e 210 -c 0 -i 30 -a 0 -x {2.0 1.0 18 ------- null}
h -t 1.61796877367387 -s 0 -d 1 -p exp -e 210 -c 0 -i 30 -a 0 -x {2.0 1.0 -1 ------- null}
r -t 1.62908877367387 -s 0 -d 1 -p exp -e 210 -c 0 -i 30 -a 0 -x {2.0 1.0 18 ------- null}
+ -t 1.62960077367387 -s 2 -d 0 -p exp -e 210 -c 0 -i 31 -a 0 -x {2.0 1.0 19 ------- null}
- -t 1.62960077367387 -s 2 -d 0 -p exp -e 210 -c 0 -i 31 -a 0 -x {2.0 1.0 19 ------- null}
h -t 1.62960077367387 -s 2 -d 0 -p exp -e 210 -c 0 -i 31 -a 0 -x {2.0 1.0 -1 ------- null}
r -t 1.63476877367387 -s 2 -d 0 -p exp -e 210 -c 0 -i 31 -a 0 -x {2.0 1.0 19 ------- null}
+ -t 1.63476877367387 -s 0 -d 1 -p exp -e 210 -c 0 -i 31 -a 0 -x {2.0 1.0 19 ------- null}
- -t 1.63476877367387 -s 0 -d 1 -p exp -e 210 -c 0 -i 31 -a 0 -x {2.0 1.0 19 ------- null}
h -t 1.63476877367387 -s 0 -d 1 -p exp -e 210 -c 0 -i 31 -a 0 -x {2.0 1.0 -1 ------- null}
r -t 1.64588877367387 -s 0 -d 1 -p exp -e 210 -c 0 -i 31 -a 0 -x {2.0 1.0 19 ------- null}
+ -t 1.64640077367387 -s 2 -d 0 -p exp -e 210 -c 0 -i 32 -a 0 -x {2.0 1.0 20 ------- null}
- -t 1.64640077367387 -s 2 -d 0 -p exp -e 210 -c 0 -i 32 -a 0 -x {2.0 1.0 20 ------- null}
h -t 1.64640077367387 -s 2 -d 0 -p exp -e 210 -c 0 -i 32 -a 0 -x {2.0 1.0 -1 ------- null}
r -t 1.65156877367387 -s 2 -d 0 -p exp -e 210 -c 0 -i 32 -a 0 -x {2.0 1.0 20 ------- null}
+ -t 1.65156877367387 -s 0 -d 1 -p exp -e 210 -c 0 -i 32 -a 0 -x {2.0 1.0 20 ------- null}
- -t 1.65156877367387 -s 0 -d 1 -p exp -e 210 -c 0 -i 32 -a 0 -x {2.0 1.0 20 ------- null}
h -t 1.65156877367387 -s 0 -d 1 -p exp -e 210 -c 0 -i 32 -a 0 -x {2.0 1.0 -1 ------- null}
r -t 1.66268877367387 -s 0 -d 1 -p exp -e 210 -c 0 -i 32 -a 0 -x {2.0 1.0 20 ------- null}
+ -t 1.66320077367387 -s 2 -d 0 -p exp -e 210 -c 0 -i 33 -a 0 -x {2.0 1.0 21 ------- null}
- -t 1.66320077367387 -s 2 -d 0 -p exp -e 210 -c 0 -i 33 -a 0 -x {2.0 1.0 21 ------- null}
h -t 1.66320077367387 -s 2 -d 0 -p exp -e 210 -c 0 -i 33 -a 0 -x {2.0 1.0 -1 ------- null}
r -t 1.66836877367387 -s 2 -d 0 -p exp -e 210 -c 0 -i 33 -a 0 -x {2.0 1.0 21 ------- null}
+ -t 1.66836877367387 -s 0 -d 1 -p exp -e 210 -c 0 -i 33 -a 0 -x {2.0 1.0 21 ------- null}
- -t 1.66836877367387 -s 0 -d 1 -p exp -e 210 -c 0 -i 33 -a 0 -x {2.0 1.0 21 ------- null}
h -t 1.66836877367387 -s 0 -d 1 -p exp -e 210 -c 0 -i 33 -a 0 -x {2.0 1.0 -1 ------- null}
r -t 1.67948877367387 -s 0 -d 1 -p exp -e 210 -c 0 -i 33 -a 0 -x {2.0 1.0 21 ------- null}
+ -t 1.68000077367387 -s 2 -d 0 -p exp -e 210 -c 0 -i 34 -a 0 -x {2.0 1.0 22 ------- null}
- -t 1.68000077367387 -s 2 -d 0 -p exp -e 210 -c 0 -i 34 -a 0 -x {2.0 1.0 22 ------- null}
h -t 1.68000077367387 -s 2 -d 0 -p exp -e 210 -c 0 -i 34 -a 0 -x {2.0 1.0 -1 ------- null}
r -t 1.68516877367387 -s 2 -d 0 -p exp -e 210 -c 0 -i 34 -a 0 -x {2.0 1.0 22 ------- null}
+ -t 1.68516877367387 -s 0 -d 1 -p exp -e 210 -c 0 -i 34 -a 0 -x {2.0 1.0 22 ------- null}
- -t 1.68516877367387 -s 0 -d 1 -p exp -e 210 -c 0 -i 34 -a 0 -x {2.0 1.0 22 ------- null}
h -t 1.68516877367387 -s 0 -d 1 -p exp -e 210 -c 0 -i 34 -a 0 -x {2.0 1.0 -1 ------- null}
r -t 1.69628877367387 -s 0 -d 1 -p exp -e 210 -c 0 -i 34 -a 0 -x {2.0 1.0 22 ------- null}
+ -t 1.69680077367387 -s 2 -d 0 -p exp -e 210 -c 0 -i 35 -a 0 -x {2.0 1.0 23 ------- null}
- -t 1.69680077367387 -s 2 -d 0 -p exp -e 210 -c 0 -i 35 -a 0 -x {2.0 1.0 23 ------- null}
h -t 1.69680077367387 -s 2 -d 0 -p exp -e 210 -c 0 -i 35 -a 0 -x {2.0 1.0 -1 ------- null}
r -t 1.70196877367387 -s 2 -d 0 -p exp -e 210 -c 0 -i 35 -a 0 -x {2.0 1.0 23 ------- null}
+ -t 1.70196877367387 -s 0 -d 1 -p exp -e 210 -c 0 -i 35 -a 0 -x {2.0 1.0 23 ------- null}
- -t 1.70196877367387 -s 0 -d 1 -p exp -e 210 -c 0 -i 35 -a 0 -x {2.0 1.0 23 ------- null}
h -t 1.70196877367387 -s 0 -d 1 -p exp -e 210 -c 0 -i 35 -a 0 -x {2.0 1.0 -1 ------- null}
r -t 1.71308877367387 -s 0 -d 1 -p exp -e 210 -c 0 -i 35 -a 0 -x {2.0 1.0 23 ------- null}
+ -t 1.71360077367387 -s 2 -d 0 -p exp -e 210 -c 0 -i 36 -a 0 -x {2.0 1.0 24 ------- null}
- -t 1.71360077367387 -s 2 -d 0 -p exp -e 210 -c 0 -i 36 -a 0 -x {2.0 1.0 24 ------- null}
h -t 1.71360077367387 -s 2 -d 0 -p exp -e 210 -c 0 -i 36 -a 0 -x {2.0 1.0 -1 ------- null}
r -t 1.71876877367387 -s 2 -d 0 -p exp -e 210 -c 0 -i 36 -a 0 -x {2.0 1.0 24 ------- null}
+ -t 1.71876877367387 -s 0 -d 1 -p exp -e 210 -c 0 -i 36 -a 0 -x {2.0 1.0 24 ------- null}
- -t 1.71876877367387 -s 0 -d 1 -p exp -e 210 -c 0 -i 36 -a 0 -x {2.0 1.0 24 ------- null}
h -t 1.71876877367387 -s 0 -d 1 -p exp -e 210 -c 0 -i 36 -a 0 -x {2.0 1.0 -1 ------- null}
r -t 1.72988877367387 -s 0 -d 1 -p exp -e 210 -c 0 -i 36 -a 0 -x {2.0 1.0 24 ------- null}
+ -t 1.73040077367387 -s 2 -d 0 -p exp -e 210 -c 0 -i 37 -a 0 -x {2.0 1.0 25 ------- null}
- -t 1.73040077367387 -s 2 -d 0 -p exp -e 210 -c 0 -i 37 -a 0 -x {2.0 1.0 25 ------- null}
h -t 1.73040077367387 -s 2 -d 0 -p exp -e 210 -c 0 -i 37 -a 0 -x {2.0 1.0 -1 ------- null}
r -t 1.73556877367387 -s 2 -d 0 -p exp -e 210 -c 0 -i 37 -a 0 -x {2.0 1.0 25 ------- null}
+ -t 1.73556877367387 -s 0 -d 1 -p exp -e 210 -c 0 -i 37 -a 0 -x {2.0 1.0 25 ------- null}
- -t 1.73556877367387 -s 0 -d 1 -p exp -e 210 -c 0 -i 37 -a 0 -x {2.0 1.0 25 ------- null}
h -t 1.73556877367387 -s 0 -d 1 -p exp -e 210 -c 0 -i 37 -a 0 -x {2.0 1.0 -1 ------- null}
+ -t 1.739234 -s 4 -d 0 -p udp -e 750 -c 0 -i 38 -a 0 -x {4.0 1.2 4 ------- null}
- -t 1.739234 -s 4 -d 0 -p udp -e 750 -c 0 -i 38 -a 0 -x {4.0 1.2 4 ------- null}
h -t 1.739234 -s 4 -d 0 -p udp -e 750 -c 0 -i 38 -a 0 -x {4.0 1.2 -1 ------- null}
r -t 1.744834 -s 4 -d 0 -p udp -e 750 -c 0 -i 38 -a 0 -x {4.0 1.2 4 ------- null}
+ -t 1.744834 -s 0 -d 1 -p udp -e 750 -c 0 -i 38 -a 0 -x {4.0 1.2 4 ------- null}
- -t 1.744834 -s 0 -d 1 -p udp -e 750 -c 0 -i 38 -a 0 -x {4.0 1.2 4 ------- null}
h -t 1.744834 -s 0 -d 1 -p udp -e 750 -c 0 -i 38 -a 0 -x {4.0 1.2 -1 ------- null}
r -t 1.74668877367387 -s 0 -d 1 -p exp -e 210 -c 0 -i 37 -a 0 -x {2.0 1.0 25 ------- null}
+ -t 1.74720077367387 -s 2 -d 0 -p exp -e 210 -c 0 -i 39 -a 0 -x {2.0 1.0 26 ------- null}
- -t 1.74720077367387 -s 2 -d 0 -p exp -e 210 -c 0 -i 39 -a 0 -x {2.0 1.0 26 ------- null}
h -t 1.74720077367387 -s 2 -d 0 -p exp -e 210 -c 0 -i 39 -a 0 -x {2.0 1.0 -1 ------- null}
+ -t 1.75231 -s 5 -d 0 -p udp -e 1000 -c 0 -i 40 -a 0 -x {5.0 1.3 8 ------- null}
- -t 1.75231 -s 5 -d 0 -p udp -e 1000 -c 0 -i 40 -a 0 -x {5.0 1.3 8 ------- null}
h -t 1.75231 -s 5 -d 0 -p udp -e 1000 -c 0 -i 40 -a 0 -x {5.0 1.3 -1 ------- null}
r -t 1.75236877367387 -s 2 -d 0 -p exp -e 210 -c 0 -i 39 -a 0 -x {2.0 1.0 26 ------- null}
+ -t 1.75236877367387 -s 0 -d 1 -p exp -e 210 -c 0 -i 39 -a 0 -x {2.0 1.0 26 ------- null}
- -t 1.75236877367387 -s 0 -d 1 -p exp -e 210 -c 0 -i 39 -a 0 -x {2.0 1.0 26 ------- null}
h -t 1.75236877367387 -s 0 -d 1 -p exp -e 210 -c 0 -i 39 -a 0 -x {2.0 1.0 -1 ------- null}
r -t 1.75811 -s 5 -d 0 -p udp -e 1000 -c 0 -i 40 -a 0 -x {5.0 1.3 8 ------- null}
+ -t 1.75811 -s 0 -d 1 -p udp -e 1000 -c 0 -i 40 -a 0 -x {5.0 1.3 8 ------- null}
- -t 1.75811 -s 0 -d 1 -p udp -e 1000 -c 0 -i 40 -a 0 -x {5.0 1.3 8 ------- null}
h -t 1.75811 -s 0 -d 1 -p udp -e 1000 -c 0 -i 40 -a 0 -x {5.0 1.3 -1 ------- null}
r -t 1.758834 -s 0 -d 1 -p udp -e 750 -c 0 -i 38 -a 0 -x {4.0 1.2 4 ------- null}
r -t 1.76348877367387 -s 0 -d 1 -p exp -e 210 -c 0 -i 39 -a 0 -x {2.0 1.0 26 ------- null}
+ -t 1.76400077367387 -s 2 -d 0 -p exp -e 210 -c 0 -i 41 -a 0 -x {2.0 1.0 27 ------- null}
- -t 1.76400077367387 -s 2 -d 0 -p exp -e 210 -c 0 -i 41 -a 0 -x {2.0 1.0 27 ------- null}
h -t 1.76400077367387 -s 2 -d 0 -p exp -e 210 -c 0 -i 41 -a 0 -x {2.0 1.0 -1 ------- null}